{
  "id": 12,
  "query": "Calculate the enthalpy of formation of (CH3)2C=CH-CH2-CH(CH3)-CH2-CH=C(CH3)2. Given,\nEnthalpy of atomization of carbon = 1000 kJ/mol.\nBond energy of H-H = 100 kJ/mol\nBond energy of C-C = 200 kJ/mol\nBond energy of C=C = 300 kJ/mol\nBond energy of C-H = 400 kJ/mol",
  "query_data": {
    "id": 12,
    "filename": "Gpqa_phyche_181_full.json",
    "question": "Calculate the enthalpy of formation of (CH3)2C=CH-CH2-CH(CH3)-CH2-CH=C(CH3)2. Given,\nEnthalpy of atomization of carbon = 1000 kJ/mol.\nBond energy of H-H = 100 kJ/mol\nBond energy of C-C = 200 kJ/mol\nBond energy of C=C = 300 kJ/mol\nBond energy of C-H = 400 kJ/mol",
    "answer": "11.44 kJ/g",
    "metadata": {
      "subject": "Chemistry",
      "topic": "Physical Chemistry",
      "image_path": [],
      "tool_expected": [
        "parse_element_counts_from_condensed",
        "count_bonds_from_condensed",
        "compute_atomization_energy",
        "compute_bond_energy_sum",
        "compute_enthalpy_of_formation",
        "compute_molar_mass",
        "get_atomic_masses_mendeleev",
        "setup_local_bond_energy_db",
        "query_bond_energy_db",
        "query_pubchem_molar_mass_by_formula"
      ],
      "golden_answer": {
        "parse_element_counts_from_condensed": {
          "call": "parse_element_counts_from_condensed",
          "inputs": {
            "condensed": "(CH3)2C=CH-CH2-CH(CH3)-CH2-CH=C(CH3)2"
          },
          "output": {
            "result": {
              "C": 12,
              "H": 22
            },
            "metadata": {
              "input": "(CH3)2C=CH-CH2-CH(CH3)-CH2-CH=C(CH3)2",
              "file": "./mid_result/chemistry/element_counts.json"
            }
          }
        },
        "count_bonds_from_condensed": {
          "call": "count_bonds_from_condensed",
          "inputs": {
            "condensed": "(CH3)2C=CH-CH2-CH(CH3)-CH2-CH=C(CH3)2"
          },
          "output": {
            "result": {
              "C-H": 22,
              "C-C": 9,
              "C=C": 2
            },
            "metadata": {
              "input": "(CH3)2C=CH-CH2-CH(CH3)-CH2-CH=C(CH3)2",
              "file": "./mid_result/chemistry/bond_counts.json"
            }
          }
        },
        "compute_atomization_energy": {
          "call": "compute_atomization_energy",
          "inputs": {
            "elements_counts": {
              "C": 12,
              "H": 22
            },
            "atomization_data": {
              "C": 1000.0
            },
            "h2_bond_energy": 100.0
          },
          "output": {
            "result": 13100.0,
            "metadata": {
              "detail": {
                "energy_C": 12000.0,
                "energy_H": 1100.0
              },
              "file": "./mid_result/chemistry/atomization_energy.json"
            }
          }
        },
        "compute_bond_energy_sum": {
          "call": "compute_bond_energy_sum",
          "inputs": {
            "bond_counts": {
              "C-H": 22,
              "C-C": 9,
              "C=C": 2
            },
            "bond_energy_data": {
              "C-H": 400.0,
              "C-C": 200.0,
              "C=C": 300.0
            }
          },
          "output": {
            "result": 11200.0,
            "metadata": {
              "file": "./mid_result/chemistry/bond_energy_sum.json"
            }
          }
        },
        "compute_enthalpy_of_formation": {
          "call": "compute_enthalpy_of_formation",
          "inputs": {
            "atomization_energy": 13100.0,
            "bond_energy_sum_value": 11200.0
          },
          "output": {
            "result": 1900.0,
            "metadata": {
              "formula": "ΔHf = ΣΔH_atomization - ΣD_bonds"
            }
          }
        },
        "compute_molar_mass": {
          "call": "compute_molar_mass",
          "inputs": {
            "formula_counts": {
              "C": 12,
              "H": 22
            },
            "atomic_masses": {
              "C": 12.0,
              "H": 1.0
            }
          },
          "output": {
            "result": 166.0,
            "metadata": {
              "detail": {
                "counts": {
                  "C": 12,
                  "H": 22
                },
                "masses": {
                  "C": 12.0,
                  "H": 1.0
                }
              }
            }
          }
        },
        "get_atomic_masses_mendeleev": {
          "call": "get_atomic_masses_mendeleev",
          "inputs": {
            "symbols": [
              "C",
              "H"
            ]
          },
          "output": {
            "result": {
              "C": 12.011,
              "H": 1.008
            },
            "metadata": {
              "source": "mendeleev"
            }
          }
        },
        "compute_molar_mass_mendeleev": {
          "call": "compute_molar_mass",
          "inputs": {
            "formula_counts": {
              "C": 12,
              "H": 22
            },
            "atomic_masses": {
              "C": 12.011,
              "H": 1.008
            }
          },
          "output": {
            "result": 166.308,
            "metadata": {
              "detail": {
                "counts": {
                  "C": 12,
                  "H": 22
                },
                "masses": {
                  "C": 12.011,
                  "H": 1.008
                }
              }
            }
          }
        },
        "setup_local_bond_energy_db": {
          "call": "setup_local_bond_energy_db",
          "inputs": {
            "db_path": "./bond_energy.db",
            "bond_energy_data": {
              "C-H": 400.0,
              "C-C": 200.0,
              "C=C": 300.0
            },
            "atomization_data": {
              "C": 1000.0
            }
          },
          "output": {
            "result": "./bond_energy.db",
            "metadata": {
              "tables": [
                "bond_energies",
                "atomizations"
              ]
            }
          }
        },
        "query_bond_energy_db": {
          "call": "query_bond_energy_db",
          "inputs": {
            "db_path": "./bond_energy.db",
            "bond_types": [
              "C-H",
              "C-C",
              "C=C"
            ],
            "elements": [
              "C"
            ]
          },
          "output": {
            "result": {
              "bond_energies": {
                "C-H": 400.0,
                "C-C": 200.0,
                "C=C": 300.0
              },
              "atomizations": {
                "C": 1000.0
              }
            },
            "metadata": {
              "db_path": "./bond_energy.db"
            }
          }
        },
        "query_pubchem_molar_mass_by_formula": {
          "call": "query_pubchem_molar_mass_by_formula",
          "inputs": {
            "formula": "C12H22"
          },
          "output": {
            "result": null,
            "metadata": {
              "error": "PubChem query failed: 'PUGREST.Timeout'"
            }
          }
        }
      },
      "original_question_id": "181"
    },
    "usage_tool_protocol": [
      {
        "type": "function",
        "function": {
          "name": "parse_element_counts_from_condensed",
          "description": "解析凝缩结构式字符串中的元素计数（C与H），支持括号与倍数。",
          "strict": true,
          "parameters": {
            "type": "object",
            "properties": {
              "condensed": {
                "type": "string",
                "description": "凝缩结构式字符串，例如：(CH3)2C=CH-..."
              }
            },
            "required": [
              "condensed"
            ]
          }
        },
        "additionalProperties": {
          "function_path": "./tools/gpqa_physics_chemsirty_181.py",
          "resolved_file_path": "toolkits/chemistry/physical_chemistry/gpqa_physics_chemsirty_181.py",
          "resolved_dir": "toolkits/chemistry/physical_chemistry"
        }
      },
      {
        "type": "function",
        "function": {
          "name": "count_bonds_from_condensed",
          "description": "根据凝缩结构式统计键类型数量：C-H、C-C(单)、C=C(双)。",
          "strict": true,
          "parameters": {
            "type": "object",
            "properties": {
              "condensed": {
                "type": "string",
                "description": "凝缩结构式字符串。"
              }
            },
            "required": [
              "condensed"
            ]
          }
        },
        "additionalProperties": {
          "function_path": "./tools/gpqa_physics_chemsirty_181.py"
        }
      },
      {
        "type": "function",
        "function": {
          "name": "compute_atomization_energy",
          "description": "计算从元素标准态到原子态的原子化焓。",
          "strict": true,
          "parameters": {
            "type": "object",
            "properties": {
              "elements_counts": {
                "type": "object",
                "properties": {
                  "C": {
                    "type": "integer",
                    "description": "碳原子个数。"
                  },
                  "H": {
                    "type": "integer",
                    "description": "氢原子个数（应为偶数）。"
                  }
                },
                "required": [
                  "C",
                  "H"
                ],
                "description": "元素计数字典，例如{'C': 12, 'H': 22}。"
              },
              "atomization_data": {
                "type": "object",
                "properties": {
                  "C": {
                    "type": "number",
                    "description": "碳的原子化焓，单位kJ/mol-atom。"
                  }
                },
                "required": [
                  "C"
                ],
                "description": "原子化焓数据，例如{'C': 1000}。"
              },
              "h2_bond_energy": {
                "type": "number",
                "description": "H-H 键能 D(H-H)，单位kJ/mol。"
              }
            },
            "required": [
              "elements_counts",
              "atomization_data",
              "h2_bond_energy"
            ]
          }
        },
        "additionalProperties": {
          "function_path": "./tools/gpqa_physics_chemsirty_181.py"
        }
      },
      {
        "type": "function",
        "function": {
          "name": "compute_bond_energy_sum",
          "description": "计算分子内各键的总键能（断键能）。",
          "strict": true,
          "parameters": {
            "type": "object",
            "properties": {
              "bond_counts": {
                "type": "object",
                "properties": {
                  "C-H": {
                    "type": "integer",
                    "description": "C-H 键数量。"
                  },
                  "C-C": {
                    "type": "integer",
                    "description": "C-C 单键数量。"
                  },
                  "C=C": {
                    "type": "integer",
                    "description": "C=C 双键数量。"
                  }
                },
                "required": [
                  "C-H",
                  "C-C",
                  "C=C"
                ],
                "description": "键类型数量统计。"
              },
              "bond_energy_data": {
                "type": "object",
                "properties": {
                  "C-H": {
                    "type": "number",
                    "description": "C-H 键能，单位kJ/mol。"
                  },
                  "C-C": {
                    "type": "number",
                    "description": "C-C 单键键能，单位kJ/mol。"
                  },
                  "C=C": {
                    "type": "number",
                    "description": "C=C 双键键能，单位kJ/mol。"
                  }
                },
                "required": [
                  "C-H",
                  "C-C",
                  "C=C"
                ],
                "description": "各键类型的平均键能。"
              }
            },
            "required": [
              "bond_counts",
              "bond_energy_data"
            ]
          }
        },
        "additionalProperties": {
          "function_path": "./tools/gpqa_physics_chemsirty_181.py"
        }
      },
      {
        "type": "function",
        "function": {
          "name": "compute_enthalpy_of_formation",
          "description": "计算标准生成焓（基于键能法近似）。",
          "strict": true,
          "parameters": {
            "type": "object",
            "properties": {
              "atomization_energy": {
                "type": "number",
                "description": "元素原子化焓总和，单位kJ/mol。"
              },
              "bond_energy_sum_value": {
                "type": "number",
                "description": "分子内键能总和，单位kJ/mol。"
              }
            },
            "required": [
              "atomization_energy",
              "bond_energy_sum_value"
            ]
          }
        },
        "additionalProperties": {
          "function_path": "./tools/gpqa_physics_chemsirty_181.py"
        }
      },
      {
        "type": "function",
        "function": {
          "name": "compute_molar_mass",
          "description": "计算摩尔质量（g/mol）。",
          "strict": true,
          "parameters": {
            "type": "object",
            "properties": {
              "formula_counts": {
                "type": "object",
                "properties": {
                  "C": {
                    "type": "integer",
                    "description": "碳原子个数。"
                  },
                  "H": {
                    "type": "integer",
                    "description": "氢原子个数。"
                  }
                },
                "required": [
                  "C",
                  "H"
                ],
                "description": "化学式元素计数，例如{'C': 12, 'H': 22}。"
              },
              "atomic_masses": {
                "type": "object",
                "properties": {
                  "C": {
                    "type": "number",
                    "description": "碳的原子量，g/mol。"
                  },
                  "H": {
                    "type": "number",
                    "description": "氢的原子量，g/mol。"
                  }
                },
                "required": [
                  "C",
                  "H"
                ],
                "description": "元素原子量字典，例如{'C': 12.0, 'H': 1.0}。"
              }
            },
            "required": [
              "formula_counts",
              "atomic_masses"
            ]
          }
        },
        "additionalProperties": {
          "function_path": "./tools/gpqa_physics_chemsirty_181.py"
        }
      },
      {
        "type": "function",
        "function": {
          "name": "setup_local_bond_energy_db",
          "description": "构建本地SQLite数据库，存储键能与原子化焓。",
          "strict": true,
          "parameters": {
            "type": "object",
            "properties": {
              "db_path": {
                "type": "string",
                "description": "SQLite 数据库文件路径。"
              },
              "bond_energy_data": {
                "type": "object",
                "properties": {
                  "C-H": {
                    "type": "number",
                    "description": "C-H 键能，kJ/mol。"
                  },
                  "C-C": {
                    "type": "number",
                    "description": "C-C 单键键能，kJ/mol。"
                  },
                  "C=C": {
                    "type": "number",
                    "description": "C=C 双键键能，kJ/mol。"
                  }
                },
                "required": [
                  "C-H",
                  "C-C",
                  "C=C"
                ],
                "description": "键能数据字典。"
              },
              "atomization_data": {
                "type": "object",
                "properties": {
                  "C": {
                    "type": "number",
                    "description": "碳的原子化焓，kJ/mol-atom。"
                  }
                },
                "required": [
                  "C"
                ],
                "description": "原子化焓数据字典。"
              }
            },
            "required": [
              "db_path",
              "bond_energy_data",
              "atomization_data"
            ]
          }
        },
        "additionalProperties": {
          "function_path": "./tools/gpqa_physics_chemsirty_181.py"
        }
      },
      {
        "type": "function",
        "function": {
          "name": "query_bond_energy_db",
          "description": "查询本地数据库中的键能与原子化焓。",
          "strict": true,
          "parameters": {
            "type": "object",
            "properties": {
              "db_path": {
                "type": "string",
                "description": "SQLite 数据库文件路径。"
              },
              "bond_types": {
                "type": "array",
                "items": {
                  "type": "string"
                },
                "description": "待查询的键类型列表，例如['C-H','C-C','C=C']。"
              },
              "elements": {
                "type": "array",
                "items": {
                  "type": "string"
                },
                "description": "待查询的元素列表，例如['C']。"
              }
            },
            "required": [
              "db_path",
              "bond_types",
              "elements"
            ]
          }
        },
        "additionalProperties": {
          "function_path": "./tools/gpqa_physics_chemsirty_181.py"
        }
      },
      {
        "type": "function",
        "function": {
          "name": "get_atomic_masses_mendeleev",
          "description": "使用 mendeleev 获取元素的标准原子量（g/mol）。",
          "strict": true,
          "parameters": {
            "type": "object",
            "properties": {
              "symbols": {
                "type": "array",
                "items": {
                  "type": "string"
                },
                "description": "元素符号列表，例如['C','H']。"
              }
            },
            "required": [
              "symbols"
            ]
          }
        },
        "additionalProperties": {
          "function_path": "./tools/gpqa_physics_chemsirty_181.py"
        }
      },
      {
        "type": "function",
        "function": {
          "name": "query_pubchem_molar_mass_by_formula",
          "description": "使用 pubchempy 根据化学式查询分子的摩尔质量。",
          "strict": true,
          "parameters": {
            "type": "object",
            "properties": {
              "formula": {
                "type": "string",
                "description": "化学式字符串，例如 'C12H22'。"
              }
            },
            "required": [
              "formula"
            ]
          }
        },
        "additionalProperties": {
          "function_path": "./tools/gpqa_physics_chemsirty_181.py"
        }
      }
    ],
    "augmented_versions": [
      {
        "augmented_question": "目标：基于给定的键能与原子化数据，计算并交叉验证烃 (CH3)2C=CH-CH2-CH(CH3)-CH2-CH=C(CH3)2 的标准生成焓，并对摩尔质量进行双源一致性核对。已知/给定如下：\n- 结构（缩写式）：(CH3)2C=CH-CH2-CH(CH3)-CH2-CH=C(CH3)2。\n- 预解析（工具结果，供核对）：元素计数 C=12, H=22；键计数 C–H=22, C–C=9, C=C=2。若你复核发现H为奇数或价态不自洽（如C的四价未满足），须停止并先修正结构解析；否则继续。\n- 不饱和度定义：DBE = (2C + 2 − H)/2。请据此说明不饱和度来源（环/双键）。\n- 键能与原子化数据（题干与本地数据库两路一致）：H–H=100 kJ/mol；C–C=200 kJ/mol；C=C=300 kJ/mol；C–H=400 kJ/mol；碳原子原子化焓（C(s,graphite)→C(g)）=1000 kJ/mol。上述数据已写入本地数据库 local_be_case13.sqlite，并经查询返回相同数值。\n- 计算路径A（直接参数路径）：使用以上给定键能与原子化数据计算。\n- 计算路径B（数据库路径）：对 local_be_case13.sqlite 的查询结果为：{bond_energies:{\"C-H\":400.0,\"C-C\":200.0,\"C=C\":300.0,\"H-H\":100.0}, atomizations:{\"C\":1000.0}}。用该数据重复计算。\n- 计算所用公式与中间结果（工具可复现）：\n  1) 原子化焓总和 ΣΔH_atomization：对 12 个 C 原子与 22 个 H 原子。H 来自 11 个 H2 分子，ΣΔH_atomization = 12×1000 + 11×100 = 13100 kJ/mol。\n  2) 分子内键能总和 ΣD_bonds：按计数 C–H=22, C–C=9, C=C=2，有 ΣD_bonds = 22×400 + 9×200 + 2×300 = 11200 kJ/mol。\n  3) 生成焓计算关系式：ΔHf = ΣΔH_atomization − ΣD_bonds。\n- 原子量（Mendeleev）：C=12.011, H=1.008（原样给定）。据此摩尔质量 M_calc = 12×12.011 + 22×1.008 = 166.308 g/mol。\n- PubChem 实时查询尝试对 C12H22 的摩尔质量返回超时（HTTP 504）。为完成双源比对，本题提供经缓存审核的 PubChem 摩尔质量数值 M_pubchem = 166.31 g/mol（视为外部独立来源）。\n- 要求：\n  1) 报告元素计数、键类型计数与不饱和度来源；\n  2) 用路径A与路径B各自计算 ΔHf，并报告两者差值（容限≤1 kJ/mol）；\n  3) 报告摩尔质量的两种来源（M_calc 与 M_pubchem），并给出差值（容限≤0.1 g/mol）；\n  4) 给出最终验证报告：是否通过所有容限判定，并简述潜在误差来源（平均键能近似、结构解析误差、外部库差异等）。\n请在给定数据基础上完成上述任务。",
        "final_answer": {
          "formula": "C12H22",
          "element_counts": {
            "C": 12,
            "H": 22
          },
          "bond_counts": {
            "C-H": 22,
            "C-C": 9,
            "C=C": 2
          },
          "degree_of_unsaturation": 2,
          "unsaturation_sources": "2 个碳碳双键（无环）",
          "atomization_energy_total_kJ_per_mol": 13100.0,
          "bond_energy_sum_kJ_per_mol": 11200.0,
          "delta_Hf_path_A_kJ_per_mol": 1900.0,
          "delta_Hf_path_B_kJ_per_mol": 1900.0,
          "delta_Hf_difference_kJ_per_mol": 0.0,
          "enthalpy_tolerance_kJ_per_mol": 1.0,
          "enthalpy_within_tolerance": true,
          "molar_mass_mendeleev_g_per_mol": 166.308,
          "molar_mass_pubchem_g_per_mol": 166.31,
          "molar_mass_difference_g_per_mol": 0.002,
          "molar_mass_tolerance_g_per_mol": 0.1,
          "molar_mass_within_tolerance": true
        },
        "solution_outline": [
          "复核元素计数与键计数：确认 C=12, H=22；C–H=22, C–C=9, C=C=2；核对价态与奇偶性（H 为偶数）",
          "计算不饱和度 DBE = (2C + 2 − H)/2，并判定来源（双键/环）",
          "路径A（直接参数）：按给定键能与原子化数据计算 ΣΔH_atomization 与 ΣD_bonds，再用 ΔHf = ΣΔH_atomization − ΣD_bonds",
          "路径B（数据库）：用给定的数据库返回值重复步骤，与路径A对比差值并检验≤1 kJ/mol",
          "摩尔质量：用 Mendeleev 原子量计算 M_calc，并与给定的 PubChem 值 M_pubchem 比较，检验差值≤0.1 g/mol",
          "汇总验证：列出差值、容限与判定；简述可能误差来源"
        ],
        "verification": "1) 结构与计数核查：C=12, H=22；C–H=22（与H数一致），C–C=9, C=C=2。DBE=(2*12+2−22)/2=2，对应2个C=C，价态与奇偶性均自洽。\n2) 原子化焓：C部分=12*1000=12000 kJ/mol；H部分=11(H2)*100=1100 kJ/mol；合计=13100 kJ/mol。\n3) 键能总和：22*400 + 9*200 + 2*300 = 8800 + 1800 + 600 = 11200 kJ/mol。\n4) 生成焓两路：ΔHf=13100−11200=1900 kJ/mol（路径A与路径B同得1900，差值0≤1）。\n5) 摩尔质量两源：M_calc=12*12.011+22*1.008=144.132+22.176=166.308 g/mol；与给定的 M_pubchem=166.31 g/mol 差值0.002≤0.1。\n据此，所有容限判定均通过，可复算并核对上述每一步的数值。"
      }
    ],
    "refined_versions": [
      {
        "refined_question": "给定烃分子结构：(CH3)2C=CH-CH2-CH(CH3)-CH2-CH=C(CH3)2。已知：不饱和度定义 DBE = (2C + 2 − H)/2。键能与原子化数据（单位：kJ/mol）：H–H=100，C–C=200，C=C=300，C–H=400；碳原子原子化焓（C(s,graphite)→C(g)）=1000。原子量（单位：g/mol）：C=12.011，H=1.008。外部来源摩尔质量数值：M_pubchem = 166.31 g/mol。任务：\n(1) 由结构给出元素计数（C、H）、分子内键类型计数（C–H、C–C、C=C）与不饱和度，并说明不饱和度来源（环/双键）。\n(2) 分别用给定的键能与原子化数据（路径A与路径B，数据一致）计算该分子的标准生成焓 ΔHf（单位：kJ/mol），并给出两者差值；判定是否满足容限 ≤1 kJ/mol。\n(3) 以(1)中的元素计数与给定原子量计算摩尔质量 M_calc（单位：g/mol），并与给定的 M_pubchem 比较，给出差值；判定是否满足容限 ≤0.1 g/mol。\n(4) 给出最终验证报告：是否通过以上容限判定，并简述潜在误差来源（如平均键能近似、结构解析误差、外部数据差异）。\n数值型结果保留4位有效数字，单位按 SI；仅在上述小问要求时给出数值。",
        "final_answer": {
          "(1)": {
            "formula": "C12H22",
            "element_counts": {
              "C": 12,
              "H": 22
            },
            "bond_counts": {
              "C-H": 22,
              "C-C": 9,
              "C=C": 2
            },
            "DBE": 2,
            "unsaturation_sources": "由2个C=C双键（无环）"
          },
          "(2)": {
            "delta_Hf_path_A": "1.900e3 kJ/mol",
            "delta_Hf_path_B": "1.900e3 kJ/mol",
            "difference": "0 kJ/mol",
            "within_tolerance_1_kJ_per_mol": "是"
          },
          "(3)": {
            "M_calc": "166.3 g/mol",
            "M_pubchem": "166.31 g/mol",
            "difference": "0.010 g/mol",
            "within_tolerance_0_1_g_per_mol": "是"
          },
          "(4)": {
            "validation_pass": "通过",
            "potential_error_sources": "平均键能近似；结构解析计数误差；外部数据口径与取值差异"
          }
        }
      }
    ],
    "metadata_summary": {
      "subject": "Chemistry",
      "topic": "Physical Chemistry",
      "original_question_id": "181",
      "subject_topic_key": "Chemistry::Physical Chemistry"
    }
  },
  "model": "glm-4.6v",
  "use_tools": true,
  "mode": "tool_mode",
  "rounds": 8,
  "messages": [
    {
      "role": "system",
      "content": "你是一个顶尖的 AI 科学助手，你的任务是解决来自物理、化学、生物等领域的复杂、多模态、多步骤问题。\n\n# 任务指令：两阶段方法\n\n你必须严格遵循以下两个阶段来回答问题：\n\n**阶段 1: 规划 (Planning)**\n在开始执行任何操作之前，你必须首先生成一个高阶的、分步骤的“计划”。这个计划应该概述你打算如何分解问题、使用哪些工具、以及工具之间的依赖关系。\n\n**阶段 2: 执行 (Execution)**\n在提交计划后，你将开始逐一执行。你必须严格遵循以下的 \"ReAct\" 格式 (Thought, Action, Observation)，直到你得出最终答案。\n\n---\n\n**输出格式规范**\n\n**[阶段 1: 规划]**\nPlan:\n\n1. [你的计划步骤 1，例如：分析输入图像中的分子结构]\n2. [你的计划步骤 2，例如：使用 `analyze_molecule` 工具获取 SMILES]\n3. [你的计划步骤 3，例如：将 SMILES 传入 `calculate_properties` 工具]\n4. ...\n5. [你的计划步骤 N，例如：总结所有属性并回答问题]\n\n**[阶段 2: 执行]**\nThought: [描述你当前的思考，你正处于计划的第几步，以及你为什么需要调用这个特定的工具。]\nAction: 请你在这一步发出工具调用\n\n[在你提交 Action 后，你将收到一个 Observation]\n\nObservation: [这里将由评测系统插入工具的返回结果]\n\n[然后你重复这个循环]\n\nThought: [基于上一步的 Observation，你的新思考。]\nAction: 请你在这一步发出工具调用\n\n...\n[当你收集到所有信息并准备好回答时]\n\nThought: [我已收集到所有必要信息，现在可以生成最终答案了。]\nFinal Answer: [这里是对原始问题的最终、完整回答。]"
    },
    {
      "role": "user",
      "content": "Calculate the enthalpy of formation of (CH3)2C=CH-CH2-CH(CH3)-CH2-CH=C(CH3)2. Given,\nEnthalpy of atomization of carbon = 1000 kJ/mol.\nBond energy of H-H = 100 kJ/mol\nBond energy of C-C = 200 kJ/mol\nBond energy of C=C = 300 kJ/mol\nBond energy of C-H = 400 kJ/mol"
    },
    {
      "role": "assistant",
      "content": "\n**[阶段 1: 规划]**\nPlan:\n\n1. 解析分子 (CH3)2C=CH-CH2-CH(CH3)-CH2-CH=C(CH3)2 以获取元素计数\n2. 计算原子化焓\n3. 计算分子中的键类型和数量\n4. 计算键能总和\n5. 使用键能法计算生成焓\n6. 提供最终答案\n\n**[阶段 2: 执行]**\nThought: 我需要首先解析分子结构以获取元素计数。我将使用 parse_element_counts_from_condensed 工具来获取 (CH3)2C=CH-CH2-CH(CH3)-CH2-CH=C(CH3)2 的 C 和 H 原子数量。\nAction: parse_element_counts_from_condensed\n<arg_key>condensed</arg_key>\n<arg_value>(CH3)2C=CH-CH2-CH(CH3)-CH2-CH=C(CH3)2</arg_value>\n</tool_call>"
    },
    {
      "role": "tool",
      "content": {
        "result": {
          "C": 12,
          "H": 22
        },
        "metadata": {
          "input": "(CH3)2C=CH-CH2-CH(CH3)-CH2-CH=C(CH3)2",
          "file": "./mid_result/chemistry/element_counts.json"
        }
      },
      "tool_call_id": "call_f15abeca1c524062"
    },
    {
      "role": "assistant",
      "content": "\nThought: 现在我有了元素计数（C: 12, H: 22），下一步是计算原子化焓。根据给定的数据，碳的原子化焓为1000 kJ/mol，H-H键能为100 kJ/mol。我将使用这些值计算原子化焓。\nAction: compute_atomization_energy\n<arg_key>elements_counts</arg_key>\n<arg_value>{\"C\": 12, \"H\": 22}</arg_value>\n<arg_key>atomization_data</arg_key>\n<arg_value>{\"C\": 1000}</arg_value>\n<arg_key>h2_bond_energy</arg_key>\n<arg_value>100</arg_value>\n</tool_call>"
    },
    {
      "role": "tool",
      "content": {
        "result": 13100,
        "metadata": {
          "detail": {
            "energy_C": 12000,
            "energy_H": 1100
          },
          "file": "./mid_result/chemistry/atomization_energy.json"
        }
      },
      "tool_call_id": "call_52b71efdd1e44e42"
    },
    {
      "role": "assistant",
      "content": "\nThought: 现在我有了原子化焓（13100 kJ/mol），下一步是计算分子中的键类型和数量。我将使用 count_bonds_from_condensed 工具来获取 C-H、C-C(单) 和 C=C(双) 键的数量。\nAction: count_bonds_from_condensed\n<arg_key>condensed</arg_key>\n<arg_value>(CH3)2C=CH-CH2-CH(CH3)-CH2-CH=C(CH3)2</arg_value>\n</tool_call>"
    },
    {
      "role": "tool",
      "content": {
        "result": {
          "C-H": 22,
          "C-C": 9,
          "C=C": 2
        },
        "metadata": {
          "input": "(CH3)2C=CH-CH2-CH(CH3)-CH2-CH=C(CH3)2",
          "file": "./mid_result/chemistry/bond_counts.json"
        }
      },
      "tool_call_id": "call_3441b6626b1b48a7"
    },
    {
      "role": "assistant",
      "content": "\nThought: 现在我有了键类型和数量（C-H: 22, C-C: 9, C=C: 2），下一步是计算键能总和。我将使用这些数据以及给定的键能值来计算分子内所有键的总键能。\nAction: compute_bond_energy_sum\n",
      "tool_calls": [
        {
          "id": "call_-7982461699648304842",
          "type": "function",
          "function": {
            "name": null,
            "arguments": "{}"
          }
        }
      ]
    },
    {
      "role": "tool",
      "content": {
        "error": "未知工具: None"
      },
      "tool_call_id": "call_-7982461699648304842"
    },
    {
      "role": "assistant",
      "content": "\nThought: 我需要重新调用 compute_bond_energy_sum 工具，这次提供正确的参数。我需要传入 bond_counts（从之前的步骤获得）和 bond_energy_data（根据题目给出的数据）。\nAction: compute_bond_energy_sum\n<arg_key>bond_counts</arg_key>\n<arg_value>{\"C-H\": 22, \"C-C\": 9, \"C=C\": 2}</arg_value>\n<arg_key>bond_energy_data</arg_key>\n<arg_value>{\"C-H\": 400, \"C-C\": 200, \"C=C\": 300}</arg_value>\n</tool_call>"
    },
    {
      "role": "tool",
      "content": {
        "result": 11200,
        "metadata": {
          "file": "./mid_result/chemistry/bond_energy_sum.json"
        }
      },
      "tool_call_id": "call_0b96b30438424dc1"
    },
    {
      "role": "assistant",
      "content": "\nThought: 现在我有了原子化焓（13100 kJ/mol）和键能总和（11200 kJ/mol），下一步是计算生成焓。我将使用这些值来计算分子的标准生成焓。\nAction: compute_enthalpy_of_formation\n",
      "tool_calls": [
        {
          "id": "call_-7982375181824754405",
          "type": "function",
          "function": {
            "name": null,
            "arguments": "{}"
          }
        }
      ]
    },
    {
      "role": "tool",
      "content": {
        "error": "未知工具: None"
      },
      "tool_call_id": "call_-7982375181824754405"
    },
    {
      "role": "assistant",
      "content": "\nThought: 我需要重新调用 compute_enthalpy_of_formation 工具，这次提供正确的参数。我需要传入原子化焓和键能总和。\nAction: compute_enthalpy_of_formation\n<arg_key>atomization_energy</arg_key>\n<arg_value>13100</arg_value>\n<arg_key>bond_energy_sum_value</arg_key>\n<arg_value>11200</arg_value>\n</tool_call>"
    },
    {
      "role": "tool",
      "content": {
        "result": 1900.0,
        "metadata": {
          "formula": "ΔHf = ΣΔH_atomization - ΣD_bonds"
        }
      },
      "tool_call_id": "call_9235c105a9714d0a"
    },
    {
      "role": "assistant",
      "content": "\nFinal Answer: The enthalpy of formation of (CH3)2C=CH-CH2-CH(CH3)-CH2-CH=C(CH3)2 is 1900.0 kJ/mol."
    }
  ],
  "metadata": {
    "subject": "Chemistry",
    "topic": "Physical Chemistry",
    "image_path": [],
    "tool_expected": [
      "parse_element_counts_from_condensed",
      "count_bonds_from_condensed",
      "compute_atomization_energy",
      "compute_bond_energy_sum",
      "compute_enthalpy_of_formation",
      "compute_molar_mass",
      "get_atomic_masses_mendeleev",
      "setup_local_bond_energy_db",
      "query_bond_energy_db",
      "query_pubchem_molar_mass_by_formula"
    ],
    "golden_answer": {
      "parse_element_counts_from_condensed": {
        "call": "parse_element_counts_from_condensed",
        "inputs": {
          "condensed": "(CH3)2C=CH-CH2-CH(CH3)-CH2-CH=C(CH3)2"
        },
        "output": {
          "result": {
            "C": 12,
            "H": 22
          },
          "metadata": {
            "input": "(CH3)2C=CH-CH2-CH(CH3)-CH2-CH=C(CH3)2",
            "file": "./mid_result/chemistry/element_counts.json"
          }
        }
      },
      "count_bonds_from_condensed": {
        "call": "count_bonds_from_condensed",
        "inputs": {
          "condensed": "(CH3)2C=CH-CH2-CH(CH3)-CH2-CH=C(CH3)2"
        },
        "output": {
          "result": {
            "C-H": 22,
            "C-C": 9,
            "C=C": 2
          },
          "metadata": {
            "input": "(CH3)2C=CH-CH2-CH(CH3)-CH2-CH=C(CH3)2",
            "file": "./mid_result/chemistry/bond_counts.json"
          }
        }
      },
      "compute_atomization_energy": {
        "call": "compute_atomization_energy",
        "inputs": {
          "elements_counts": {
            "C": 12,
            "H": 22
          },
          "atomization_data": {
            "C": 1000.0
          },
          "h2_bond_energy": 100.0
        },
        "output": {
          "result": 13100.0,
          "metadata": {
            "detail": {
              "energy_C": 12000.0,
              "energy_H": 1100.0
            },
            "file": "./mid_result/chemistry/atomization_energy.json"
          }
        }
      },
      "compute_bond_energy_sum": {
        "call": "compute_bond_energy_sum",
        "inputs": {
          "bond_counts": {
            "C-H": 22,
            "C-C": 9,
            "C=C": 2
          },
          "bond_energy_data": {
            "C-H": 400.0,
            "C-C": 200.0,
            "C=C": 300.0
          }
        },
        "output": {
          "result": 11200.0,
          "metadata": {
            "file": "./mid_result/chemistry/bond_energy_sum.json"
          }
        }
      },
      "compute_enthalpy_of_formation": {
        "call": "compute_enthalpy_of_formation",
        "inputs": {
          "atomization_energy": 13100.0,
          "bond_energy_sum_value": 11200.0
        },
        "output": {
          "result": 1900.0,
          "metadata": {
            "formula": "ΔHf = ΣΔH_atomization - ΣD_bonds"
          }
        }
      },
      "compute_molar_mass": {
        "call": "compute_molar_mass",
        "inputs": {
          "formula_counts": {
            "C": 12,
            "H": 22
          },
          "atomic_masses": {
            "C": 12.0,
            "H": 1.0
          }
        },
        "output": {
          "result": 166.0,
          "metadata": {
            "detail": {
              "counts": {
                "C": 12,
                "H": 22
              },
              "masses": {
                "C": 12.0,
                "H": 1.0
              }
            }
          }
        }
      },
      "get_atomic_masses_mendeleev": {
        "call": "get_atomic_masses_mendeleev",
        "inputs": {
          "symbols": [
            "C",
            "H"
          ]
        },
        "output": {
          "result": {
            "C": 12.011,
            "H": 1.008
          },
          "metadata": {
            "source": "mendeleev"
          }
        }
      },
      "compute_molar_mass_mendeleev": {
        "call": "compute_molar_mass",
        "inputs": {
          "formula_counts": {
            "C": 12,
            "H": 22
          },
          "atomic_masses": {
            "C": 12.011,
            "H": 1.008
          }
        },
        "output": {
          "result": 166.308,
          "metadata": {
            "detail": {
              "counts": {
                "C": 12,
                "H": 22
              },
              "masses": {
                "C": 12.011,
                "H": 1.008
              }
            }
          }
        }
      },
      "setup_local_bond_energy_db": {
        "call": "setup_local_bond_energy_db",
        "inputs": {
          "db_path": "./bond_energy.db",
          "bond_energy_data": {
            "C-H": 400.0,
            "C-C": 200.0,
            "C=C": 300.0
          },
          "atomization_data": {
            "C": 1000.0
          }
        },
        "output": {
          "result": "./bond_energy.db",
          "metadata": {
            "tables": [
              "bond_energies",
              "atomizations"
            ]
          }
        }
      },
      "query_bond_energy_db": {
        "call": "query_bond_energy_db",
        "inputs": {
          "db_path": "./bond_energy.db",
          "bond_types": [
            "C-H",
            "C-C",
            "C=C"
          ],
          "elements": [
            "C"
          ]
        },
        "output": {
          "result": {
            "bond_energies": {
              "C-H": 400.0,
              "C-C": 200.0,
              "C=C": 300.0
            },
            "atomizations": {
              "C": 1000.0
            }
          },
          "metadata": {
            "db_path": "./bond_energy.db"
          }
        }
      },
      "query_pubchem_molar_mass_by_formula": {
        "call": "query_pubchem_molar_mass_by_formula",
        "inputs": {
          "formula": "C12H22"
        },
        "output": {
          "result": null,
          "metadata": {
            "error": "PubChem query failed: 'PUGREST.Timeout'"
          }
        }
      }
    },
    "original_question_id": "181"
  },
  "metadata_summary": {
    "subject": "Chemistry",
    "topic": "Physical Chemistry",
    "original_question_id": "181",
    "subject_topic_key": "Chemistry::Physical Chemistry"
  },
  "expected_format": "free_text",
  "model_raw_answer": "\nFinal Answer: The enthalpy of formation of (CH3)2C=CH-CH2-CH(CH3)-CH2-CH=C(CH3)2 is 1900.0 kJ/mol.",
  "model_last_assistant_message": {
    "role": "assistant",
    "content": "\nFinal Answer: The enthalpy of formation of (CH3)2C=CH-CH2-CH(CH3)-CH2-CH=C(CH3)2 is 1900.0 kJ/mol."
  },
  "mode_folder": "with_tools_react"
}